ITEM: TIMESTEP
0
ITEM: NUMBER OF ATOMS
3
ITEM: BOX BOUNDS pp pp pp
0.0 10.0
0.0 10.0
0.0 10.0
ITEM: ATOMS id type x y z
1 1 5.0 5.0 5.0
2 2 5.757 5.586 5.0
3 2 4.243 5.586 5.0
ITEM: TIMESTEP
100
ITEM: NUMBER OF ATOMS
3
ITEM: BOX BOUNDS pp pp pp
0.0 10.0
0.0 10.0
0.0 10.0
ITEM: ATOMS id type x y z
1 1 5.1 5.1 5.1
2 2 5.857 5.686 5.1
3 2 4.343 5.686 5.1
ITEM: TIMESTEP
200
ITEM: NUMBER OF ATOMS
3
ITEM: BOX BOUNDS pp pp pp
0.0 10.0
0.0 10.0
0.0 10.0
ITEM: ATOMS id type x y z
1 1 5.2 5.2 5.2
2 2 5.957 5.786 5.2
3 2 4.443 5.786 5.2
